  224  22410000    1
  0.5688529E+01  0.9472752E-09  0.1024270E-08  0.1313280E-08  0.5000000E-15
  1.000000000000000E-004
  CAR 
 KEVLAR                                  
    704      1    465
